,formula,pearson symbol,space group,mpid,oqmdid,e_form expt,e_form mp,e_form oqmd
384,VPt3,tI8,I4/mmm,mp-2705,18028.0,-0.284,-0.45914973,-0.44208346
385,VPt2,oI6,Immm,mp-12108,30989.0,-0.3856,-0.55702017,-0.53721562
386,TiPt,cP2,Pm-3m,mp-11552,18015.0,-0.826,-0.79131172,-0.79979012
387,TiPt,oP4,Pmma,mp-998949,,-0.94,-0.9285324,
388,ZrPt,oS8,Cmcm,,30995.0,-0.995,,-1.08603694
389,ZrPt,oS8,Cmcm,,30995.0,-1.0789,,-1.08603694
390,SmRh2,cF24,Fd-3m,mp-840,18058.0,-0.6789,-0.70122295,-0.69424156
391,Rh3Sm4,,,,,-0.6892,,
392,TbRh,cP2,Pm-3m,mp-11561,18067.0,-0.7493,-0.86392462,-0.51145901
393,TbRh2,cF24,Fd-3m,mp-1310,18068.0,-0.6675,-0.74930235,-0.52306842
394,TmRh,cP2,Pm-3m,mp-11564,18076.0,-0.9214,-0.98561536,-0.96668025
395,TmRh2,cF24,Fd-3m,mp-30865,18077.0,-0.7566,-0.77274405,-0.77044224
396,YRh,cP2,Pm-3m,mp-191,18083.0,-0.7887,-0.85827792,-0.84222032
397,YRh2,cF24,Fd-3m,mp-921,18084.0,-0.6778,-0.74091214,-0.73874162
398,ZrRh,cP2,Pm-3m,mp-2808,90794.0,-0.7866,-0.73091778,-0.75268252
399,RhZr,,,,,-0.8188,,
400,URh3,cP4,Pm-3m,mp-1150,18078.0,-0.7224,-0.66664515,-0.67258111
401,TiRh,cP2,Pm-3m,mp-11563,18073.0,-0.741,-0.71770692,-0.74982654
402,TiRh,mP4,P12/m1,,755406.0,-0.7711,,-0.76142264
403,Ru2Tb,hP12,P63/mmc,,,-0.2446,,
404,Ru2Tb5,,,,,-0.3099,,
405,Ru2.Y5,mS28,C12/c1,,,-0.2829,,
406,ZrRu,cP2,Pm-3m,mp-214,116234.0,-0.7120000000000001,-0.66012382,-0.64287548
407,TiRu,cP2,Pm-3m,mp-592,94574.0,-0.7979999999999999,-0.7733,-0.78846466
408,URu3,cP4,Pm-3m,mp-1263,18098.0,-0.3213,-0.32529303,-0.32385064
409,HfRu,cP2,Pm-3m,mp-2802,17389.0,-0.9514,-0.8331390999999999,-0.81247741
410,Fe2Sc,hP12,P63/mmc,,,-0.1161,,
411,ScCo2,cF24,Fd-3m,mp-253,19393.0,-0.3368,-0.35023303,-0.36189395
412,Sc2Co,tI12,I4/mcm,mp-30562,17119.0,-0.2767,-0.26004219,-0.26502967
413,ScNi,cP2,Pm-3m,mp-11521,17795.0,-0.4633,-0.50720254,-0.51584033
414,ScNi2,cF24,Fd-3m,mp-850,17796.0,-0.4457,-0.52315748,-0.52449873
415,ScRu,cP2,Pm-3m,mp-30867,18090.0,-0.4612,-0.54169358,-0.53324862
416,ScRh,cP2,Pm-3m,mp-1780,18054.0,-0.9794,-1.0415801,-1.02687326
417,ScIr,cP2,Pm-3m,mp-1129,17512.0,-0.9297,-1.05110554,-1.03014618
418,ScRh3,cP4,Pm-3m,mp-635,18055.0,-0.5358,-0.61301078,-0.61530617
419,ScPd,cP2,Pm-3m,mp-2781,17944.0,-0.9255,-0.90841484,-0.90740356
420,ScIr2,cF24,Fd-3m,mp-2263,17513.0,-0.6871,-0.74323264,-0.7488888000000001
421,ScPt,cP2,Pm-3m,mp-892,17995.0,-1.0862,-1.22008164,-1.22878817
422,ScPt3,cP4,Pm-3m,mp-481,17997.0,-0.9805,-1.05328318,-1.04670448
423,Tm4Pd5,,,,,-0.9639,,
424,AlB12,tP216,P41212,,,-0.1182,,
425,AlMn4,cP20,P4132,,,-0.1565,,
426,AlMo3,cP8,Pm-3n,mp-259,10507.0,-0.2311,-0.22816317,-0.23531136
427,Nb3Al,cP8,Pm-3n,mp-796,18709.0,-0.142,-0.15861377,-0.18075574
428,AlPt3,,,,,-0.6592,,
429,AlPd2,oP12,Pnma,mp-2824,10552.0,-0.9048,-0.83438478,-0.82853899
430,AlRe2,tI6,I4/mmm,mp-10909,10574.0,-0.3068,-0.26518005,-0.25623593
431,Ta2Al,tP30,P42/mnm,mp-639874,658981.0,-0.2062,-0.06988478,-0.25063347
432,Al2Mn3,hP2,P63/mmc,,,-0.2425,,
433,Y3Al2,tP20,P42/mnm,mp-16723,,-0.4146,-0.35436314,
434,AlFe,cP2,Pm-3m,mp-2658,54708.0,-0.2436,-0.33204742,-0.33175568
435,HfAl,oS8,Cmcm,mp-249,18706.0,-0.4135,-0.40458448,-0.40186183
436,AlNi,cP2,Pm-3m,mp-1487,94913.0,-0.6042,-0.65864811,-0.66944636
437,AlPt,cP8,P213,mp-10904,10562.0,-1.0385,-1.04806983,-1.0482982
438,AlPt,cP8,P213,mp-10904,10562.0,-1.0116,-1.04806983,-1.0482982
439,AlRh,cP2,Pm-3m,mp-364,10576.0,-1.1017,-1.09471293,-1.09711632
440,AlRu,cP2,Pm-3m,mp-542569,18193.0,-0.6436,-0.6935834,-0.66275832
441,ScAl,cP2,Pm-3m,mp-331,10539.0,-0.426,-0.45145086,-0.44950931
442,Al4C3,hR21,R-3m,mp-1591,,-0.1897,-0.09141716,
443,Al3Pt2,hP5,P-3m1,mp-10905,10565.0,-1.0001,-0.99776218,-1.0001106
444,Al8Cr5,tI6,I4/mmm,,,-0.1752,,
445,Al8V5,cI52,I-43m,,,-0.3524,,
446,ScAl1.78,cF24,Fd-3m,,,-0.4944,,
447,HfAl2,hP12,P63/mmc,mp-12657,19094.0,-0.45399999999999996,-0.44346682,-0.44402344
448,LaAl2,cF24,Fd-3m,mp-2694,10483.0,-0.5172,-0.49784908,-0.49709903
449,LuAl2,cF24,Fd-3m,mp-1234,10492.0,-0.5452,-0.48386232,-0.48440793
450,Al2Os,tI6,I4/mmm,mp-7188,10545.0,-0.4654,-0.56370358,-0.5618871
451,YAl2,cF24,Fd-3m,mp-2322,10612.0,-0.5224,-0.5314414000000001,-0.53390158
452,ZrAl2,hP12,P63/mmc,mp-2772,9987.0,-0.54,-0.53810863,-0.54013952
453,Al8Mo3,mS22,C12/m1,,,-0.342,,
454,Al11Re4,aP15,P-1,,,-0.3576,,
455,ZrAl3,tI16,I4/mmm,mp-395,18198.0,-0.5016,-0.48454051,-0.48795685
456,HfAl3,tI16,I4/mmm,mp-568718,19074.0,-0.4208,-0.39534417,-0.39629425
457,NbAl3,tI8,I4/mmm,mp-1842,18710.0,-0.4198,-0.42336587,-0.43058276
458,TaAl3,tI8,I4/mmm,mp-869,644858.0,-0.3099,-0.31732438,-0.31961342
459,TiAl3,tI8,I4/mmm,mp-542915,18722.0,-0.3793,-0.39576492,-0.41231514
460,Al3V,tI8,I4/mmm,mp-2554,10604.0,-0.2881,-0.2886842,-0.28231944
461,Al11La3,oI28,Immm,,,-0.3887,,
462,Al4W,mS30,C1m1,mp-30336,10605.0,-0.1461,-0.15354977,-0.15547335
463,Co2B,tI12,I4/mcm,mp-493,5855.0,-0.2011,-0.24053737,-0.20127126
464,Fe2B,tI12,I4/mcm,mp-1915,7798.0,-0.2342,-0.31252032,-0.31235674
465,Mn2B,tI12,I4/mcm,mp-20318,67949.0,-0.3285,-0.39763521,-0.39815569
466,Ni2B,tI12,I4/mcm,mp-2536,7800.0,-0.2342,-0.28994333,-0.29406372
467,BPt2,hP6,P63/mmc,,,-0.2073,,
468,CoB,oP8,Pnma,mp-20857,5858.0,-0.3607,-0.40155458,-0.41008351
469,FeB,oP8,Pnma,mp-20787,5857.0,-0.3348,-0.37298173,-0.37596999
470,MnB,oP8,Pnma,mp-8365,13802.0,-0.371,-0.49912716,-0.49958023
471,BMo,,,,,-0.2975,,
472,NiB,oS8,Cmcm,mp-14019,5171.0,-0.2083,-0.2414927,-0.24335188
473,NiB,oS8,Cmcm,mp-14019,5171.0,-0.2145,-0.2414927,-0.24335188
474,RhB1.1,hP4,P63/mmc,mp-567164,,-0.3679,-0.38261772,
475,RuB1.1,hP4,P63/mmc,,,-0.2301,,
476,B4Ir3,mS28,C12/c1,,,-0.2166,,
477,CrB2,hP3,P6/mmm,mp-374,5847.0,-0.4125,-0.34044859,-0.33724790000000004
478,DyB2,hP3,P6/mmm,mp-2057,8332.0,-0.313,-0.56534511,-0.5618701
479,ErB2,hP3,P6/mmm,mp-1774,647372.0,-0.2829,-0.62338387,-0.62242526
480,HoB2,hP3,P6/mmm,mp-2267,8366.0,-0.2892,-0.5948309,-0.59305299
481,LuB2,hP3,P6/mmm,mp-11219,115218.0,-0.3089,-0.69191694,-0.68902248
482,MnB2,hP3,P6/mmm,mp-585,8179.0,-0.2187,-0.28357077,-0.2887995
483,NbB2,hP3,P6/mmm,mp-450,5806.0,-0.625,-0.69347592,-0.69505215
484,ReB2,hP6,P63/mmc,mp-1773,4449.0,-0.2228,-0.42981648,-0.42013953
485,ScB2,hP3,P6/mmm,mp-2252,8428.0,-1.0603,-0.84106919,-0.83846984
486,TaB2,hP3,P6/mmm,mp-1108,5807.0,-0.5524,-0.652593,-0.64900102
487,TbB2,hP3,P6/mmm,mp-965,8471.0,-0.3545,-0.53102592,-0.30809373
488,TiB2,hP3,P6/mmm,mp-1145,5808.0,-1.1349,-1.05740636,-1.06683324
489,TmB2,hP3,P6/mmm,mp-800,8473.0,-0.3171,-0.65282273,-0.65122261
490,VB2,hP3,P6/mmm,mp-1491,109274.0,-0.7328,-0.74284597,-0.73208942
491,YB2,hP3,P6/mmm,mp-1542,8475.0,-0.37,-0.56479997,-0.56358483
492,B5Gd2,mP28,P121/c1,,,-0.4467,,
493,B5Nd2,,,,,-0.4032,,
494,B5Os2,hP6,P63/mmc,,,-0.1182,,
495,B5Pd2,mS28,C12/c1,,,-0.2653,,
496,B5W2,hP12,P63/mmc,,,-0.1814,,
497,CeB4,tP20,P4/mbm,mp-1974,4683.0,-0.5545,-0.62698238,-0.51932182
498,LaB4,tP20,P4/mbm,mp-7283,2155.0,-0.5255,-0.57170034,-0.56834399
499,NdB4,tP20,P4/mbm,mp-1632,19849.0,-0.5524,-0.5648665,-0.56388366
500,PrB4,tP20,P4/mbm,mp-12569,18748.0,-0.5503,-0.54672396,-0.54576316
501,YB4,tP20,P4/mbm,mp-637,5124.0,-0.5421,-0.59063889,-0.58949615
502,LaB6,cP7,Pm-3m,mp-2680,,-0.5928,-0.56401877,
503,PrB6,cP7,Pm-3m,mp-12762,,-0.5317,-0.48410568,
504,C2Mn5,mS28,C12/c1,,,-0.0922,,
505,C2Mn5,mS28,C12/c1,,,-0.1036,,
506,C3Cr7,hP80,P63mc,,,-0.1461,,
507,C3Mn7,hP80,P63mc,,,-0.0943,,
508,Mo2C,oP16,Pbcn,mp-1552,8050.0,-0.1202,-0.10295956,-0.11555772
509,CSc2,cF48,Fd-3m,,,-0.4716,,
510,Y2C,hR9,R-3m,mp-1334,4155.0,-0.3296,-0.29194155,-0.29775347
511,C3V4,hP8,P63mc,,,-0.4177,,
512,TiC,cF8,Fm-3m,mp-631,1949.0,-0.9628,-0.80734115,-0.80412494
513,CeC2,tI6,I4/mmm,mp-2839,13373.0,-0.2633,-0.1554227,-0.08301998
514,DyC2,tI6,I4/mmm,mp-541840,7901.0,-0.2964,-0.19310779,-0.19727318
515,ErC2,tI6,I4/mmm,mp-1579,4391.0,-0.2985,-0.19368365,-0.20063332
516,GdC2,tI6,I4/mmm,mp-12765,19369.0,-0.257,-0.16630952,-0.18553698
517,HoC2,,,,,-0.2964,,
518,LaC2,tI6,I4/mmm,mp-2367,5051.0,-0.2819,-0.16197667,-0.16385663
519,LuC2,tI6,I4/mmm,mp-8371,13888.0,-0.2767,-0.18638216,-0.19246326
520,NdC2,tI6,I4/mmm,mp-2297,53650.0,-0.3026,-0.11838131,-0.12456444
521,PrC2,tI6,I4/mmm,mp-1995,3666.0,-0.3047,-0.10019788,-0.10602352
522,SmC2,tI6,I4/mmm,mp-12764,19368.0,-0.2664,-0.14752258,-0.15356634
523,TbC2,tI6,I4/mmm,mp-2119,13374.0,-0.255,-0.18882349,0.02651546
524,C2Tm,,,,,-0.3265,,
525,CeSi2,tI12,I4/mcm,,,-0.627,,
526,CeSi,oP8,Pnma,mp-21115,18278.0,-0.7369,-0.65310562,-0.71849747
527,Ce5Si3,tI32,I4/mcm,mp-570175,29191.0,-0.5472,-0.54661531,-0.55564635
528,Ga3Co,tP16,P42/mnm,mp-20559,29254.0,-0.3047,-0.26603952,-0.26709825
529,CoSi2,cF12,Fm-3m,mp-2379,5256.0,-0.3617,-0.46811329,-0.47477289
530,CoSi,cP8,P213,mp-7577,3604.0,-0.511,-0.61459397,-0.62430027
531,Co2Si,oP12,Pnma,mp-19905,646168.0,-0.3928,-0.45288601,-0.46466624
532,CrSi2,hP9,P6222,mp-1222,,-0.2674,-0.36275147,
533,CrSi,cP8,P213,mp-7576,3602.0,-0.3545,-0.29522304,-0.2884598
534,Cr5Si3,tI32,I4/mcm,mp-7506,3178.0,-0.3482,-0.31502719,-0.31060762
535,Cr3Ga,cP8,Pm-3n,mp-1231,29544.0,-0.1223,-0.04884287,-0.05522517
536,Cr3Si,cP8,Pm-3n,mp-729,3600.0,-0.2819,-0.34850978,-0.36159126
537,Cu3Si,,,,,-0.0632,,
538,DySi2,oI12,Imma,,,-0.5659,,
539,DySi,oP8,Pnma,mp-1182,21014.0,-0.7141,-0.83304592,-0.8317414000000001
540,Dy5Si3,hP16,P63/mcm,mp-2836,651409.0,-0.6633,-0.68672013,-0.68469964
541,ErSi2,hP3,P6/mmm,mp-2145,665784.0,-0.6488,-0.49372392,-0.49122696
542,ErSi,oS8,Cmcm,mp-378,2939.0,-0.8799,-0.82215116,-0.8255610999999999
543,Er5Si3,hP16,P63/mcm,mp-31167,10339.0,-0.7328,-0.69769718,-0.7014001999999999
544,Ga3Fe,tP16,P42/mnm,mp-636368,30160.0,-0.257,-0.23007081,-0.23789909
545,FeSi,cP8,P213,mp-871,6697.0,-0.4001,-0.51035913,-0.51414325
546,GaMo3,cP8,Pm-3n,mp-2377,30299.0,-0.172,-0.15113122,-0.15670685
547,GaPd2,oP12,Pnma,mp-1869,18584.0,-0.6675,-0.64677807,-0.64203331
548,Ti2Ga,hP6,P63/mmc,mp-30671,22484.0,-0.4042,-0.39903784,-0.44495909999999994
549,Zr2Ga,tI12,I4/mcm,mp-569833,17131.0,-0.5535,-0.46617369,-0.4660022
550,Nb5Ga3,tI32,I4/mcm,mp-570293,30301.0,-0.2747,-0.3216266,-0.3365402
551,Sc5Ga3,hP16,P63/mcm,mp-17332,,-0.6156,-0.52132614,
552,GaNi,cP2,Pm-3m,mp-1941,89558.0,-0.4654,-0.36500987,-0.37624769
553,GaPd,cP8,P213,,23801.0,-0.7421,,-0.65903422
554,GaRh,cP2,Pm-3m,mp-2444,89616.0,-0.7587,-0.69359272,-0.68984355
555,GaRu,cP2,Pm-3m,mp-22320,17297.0,-0.3669,-0.32212428,-0.29821966
556,YGa,oS8,Cmcm,mp-11420,30366.0,-0.74,-0.66433596,-0.66682175
557,Ga2Ru,oF24,Fddd,,,-0.4249,,
558,YGa2,hP3,P6/mmm,mp-1914,30368.0,-0.7058,-0.6629153,-0.66099664
559,Ga5V2,tP14,P4/mbm,,,-0.172,,
560,Ga3Rh,tP16,P42/mnm,,,-0.4654,,
561,TmGa3,cP4,Pm-3m,mp-1603,19193.0,-0.5027,-0.49921012,-0.50422251
562,GdSi2,oI12,Imma,,,-0.6115,,
563,GdSi,oP8,Pnma,mp-601371,12494.0,-0.7835,-0.78330897,-0.82500956
564,Gd5Si3,hP16,P63/mcm,,30419.0,-0.7048,,-0.65729056
565,HfSi,oP8,Pnma,mp-1042,647082.0,-0.7348,-0.82072508,-0.8201265999999999
566,Hf3Si2,tP10,P4/mbm,mp-2105,647083.0,-0.8291,-0.8034005999999999,-0.80117558
567,HoSi2,oI12,Imma,,,-0.6022,,
568,HoSi,oS8,Cmcm,mp-12899,19859.0,-0.8385,-0.82723595,-0.82907496
569,Ho5Si3,hP16,P63/mcm,mp-13236,30562.0,-0.7732,-0.69273225,-0.69430109
570,SiIr,oP8,Pnma,mp-1128,3182.0,-0.6612,-0.68431045,-0.69033796
571,SiIr,oP8,Pnma,mp-1128,3182.0,-0.6675,-0.68431045,-0.69033796
572,LaSi2,tI12,I4/mcm,,14081.0,-0.5887,,-0.66589192
573,LaSi,oP8,Pnma,mp-1860,2938.0,-0.7659,-0.74327757,-0.73829345
574,La3Si2,tP10,P4/mbm,mp-10162,8508.0,-0.6384,-0.63776534,-0.63053424
575,La5Si3,tI32,I4/mcm,mp-10961,16378.0,-0.6229,-0.60975188,-0.60340254
576,LuSi,oS8,Cmcm,mp-1001612,31331.0,-0.8115,-0.79471601,-0.79627164
577,Lu5Si3,hP16,P63/mcm,mp-11908,31330.0,-0.7027,-0.70254819,-0.70342489
578,MnSi,cP8,P213,mp-1431,3603.0,-0.4084,-0.46536604,-0.46425079
579,Mn5Si3,hP16,P63/mcm,mp-1111,,-0.3524,-0.34849914,
580,Si2Mo,tI6,I4/mmm,mp-2592,17715.0,-0.4964,-0.490212,-0.49665163
581,Si3Mo5,tI32,I4/mcm,mp-1332,6653.0,-0.3959,-0.38982914,-0.39820548
582,NbSi2,hP9,P6222,mp-2478,,-0.5566,-0.54430792,
583,Nb5Si3,tI32,I4/mcm,mp-13686,3572.0,-0.6695,-0.66596324,-0.67982951
584,NdSi2,oI12,Imma,,,-0.6426,,
585,NdSi,oP8,Pnma,mp-9967,7934.0,-0.8157,-0.76401844,-0.76616419
586,Nd5Si3,tI32,I4/mcm,mp-567735,27253.0,-0.6457,-0.58656729,-0.58972551
587,SiNi,oP8,Pnma,mp-351,5883.0,-0.4394,-0.50192808,-0.5038064
588,SiNi2,oP12,Pnma,mp-1118,4675.0,-0.5244,-0.55259568,-0.55906508
589,Ni5Si2,hP43,P321,,,-0.4674,,
590,Si3Os2,oP40,Pbcn,mp-16608,83466.0,-0.3161,-0.45552864,-0.45174752
591,SiOs,cP8,P213,mp-2488,3181.0,-0.4146,-0.36805215,-0.36359973
592,SiPd2,hP9,P-62m,mp-697068,669944.0,-0.6685,-0.69371833,-0.6909829000000001
593,SiPd2,hP9,P-62m,mp-697068,669944.0,-0.6654,-0.69371833,-0.6909829000000001
594,SiPd3,oP16,Pnma,mp-20622,8197.0,-0.6001,-0.61338369,-0.60600528
595,PrSi2,oI12,Imma,,,-0.6374,,
596,PrSi,oP8,Pnma,mp-9968,7935.0,-0.8094,-0.74327973,-0.74525461
597,Pr5Si3,tI32,I4/mcm,,,-0.7006,,
598,SiPt,oP8,Pnma,mp-696,2257.0,-0.6156,-0.67142261,-0.67066312
599,SiPt,oP8,Pnma,mp-696,2257.0,-0.6177,-0.67142261,-0.67066312
600,SiPt2,tI6,I4/mmm,mp-1299,14060.0,-0.6395,-0.72375884,-0.72264214
601,SiPt2,,,,,-0.6561,,
602,Re2Si,mP24,P121/c1,mp-669547,10376.0,-0.1316,0.10865856,-0.09513163
603,SiRh,oP8,Pnma,mp-818,18901.0,-0.7773,-0.82274837,-0.82411252
604,SiRh,,,,,-0.7856,,
605,SiRh2,oP12,Pnma,mp-20418,8055.0,-0.6623,-0.72588414,-0.73085926
606,Si3Ru2,oP40,Pbcn,mp-22192,2149.0,-0.6291,-0.63734496,-0.6246689999999999
607,SiRu,cP8,P213,mp-189,14277.0,-0.6022,-0.65174517,-0.63907988
608,SiRu,,,,,-0.6022,,
609,ScSi,oS8,Cmcm,mp-9969,7936.0,-0.853,-0.83644904,-0.83784269
610,Sc5Si3,hP16,P63/mcm,mp-7822,4475.0,-0.9317,-0.76833573,-0.76933428
611,V3Si,cP8,Pm-3n,mp-2567,4182.0,-0.4809,-0.46472440000000004,-0.46975583
612,Sm5Si3,hP16,P63/mcm,,31250.0,-0.6954,,-0.61183675
613,Ta5Si3,tI32,I4/mcm,mp-1989,3573.0,-0.3949,-0.61606373,-0.61647648
614,Tb5Si3,hP16,P63/mcm,mp-206,17347.0,-0.6322,-0.67495204,-0.26112869
615,Ti5Si3,hP16,P63/mcm,mp-2108,,-0.7649,-0.76599174,
616,Tm5Si3,hP16,P63/mcm,,31067.0,-0.7887,,-0.70337537
617,V5Si3,tI32,I4/mcm,mp-568671,31069.0,-0.6115,-0.58859846,-0.57183864
618,Y5Si3,hP16,P63/mcm,mp-2538,8194.0,-0.7431,-0.71907995,-0.72101896
619,Y5Si3,hP16,P63/mcm,mp-2538,8194.0,-0.8333,-0.71907995,-0.72101896
620,Zr5Si3,hP16,P63/mcm,mp-568115,31218.0,-0.7431,-0.81774496,-0.81917994
621,Si4Ti5,oP36,Pnma,,,-0.8136,,
622,Si4Zr5,tP36,P41212,mp-1304,3883.0,-0.9525,-0.90321937,-0.90447382
623,SmSi,oP8,Pnma,,31066.0,-0.826,,-0.79741521
624,TbSi,oP8,Pnma,mp-1924,4359.0,-0.8385,-0.8316249,-0.50097379
625,TiSi,oP8,Pnma,mp-7092,8102.0,-0.7524,-0.76805125,-0.79083582
626,TmSi,oS8,Cmcm,,31068.0,-0.8924,,-0.81673222
627,YSi,oS8,Cmcm,mp-9972,7939.0,-0.8364,-0.85029844,-0.8523987
628,ZrSi,oP8,Pnma,mp-893,3569.0,-0.9794,-0.93338872,-0.9340726
629,Si2Sm,oI12,Imma,,,-0.6871,,
630,TaSi2,hP9,P6222,mp-517,8153.0,-0.4768,-0.47875561,-0.47784741
631,Si2Tb,oI12,Imma,,,-0.6374,,
632,TiSi2,oF24,Fddd,mp-2582,1833.0,-0.5908,-0.55103089,-0.57236762
633,TmSi2,hP3,P6/mmm,mp-772,657436.0,-0.6726,-0.47259589999999996,-0.47019623
634,VSi2,hP9,P6222,mp-10711,,-0.3887,-0.48601618,
635,Si2W,tI6,I4/mmm,mp-1620,5147.0,-0.2829,-0.34341414,-0.3448632
636,YSi2,hP3,P6/mmm,mp-2568,670808.0,-0.6405,-0.52999675,-0.52655247
637,ZrSi2,oS12,Cmcm,mp-1515,3570.0,-0.625,-0.65230484,-0.6533262
638,CeIn3,cP4,Pm-3m,mp-20369,29103.0,-0.5089,-0.41688439,-0.48217938
639,PrIn3,cP4,Pm-3m,mp-20903,11139.0,-0.5317,-0.47857438,-0.48202635
640,NdIn3,cP4,Pm-3m,mp-21197,11111.0,-0.5338,-0.47555777,-0.47815617
641,SmIn3,cP4,Pm-3m,mp-19977,11162.0,-0.5389,-0.46268878,-0.46591877
642,GdIn3,cP4,Pm-3m,mp-20258,30377.0,-0.5027,-0.43358645,-0.44569283
643,TbIn3,cP4,Pm-3m,mp-20920,11165.0,-0.5545,-0.4323234,-0.26806531
644,DyIn3,cP4,Pm-3m,mp-20236,31227.0,-0.4985,-0.4179685,-0.41726646
645,Ho5In3,hP16,P63/mcm,,30538.0,-0.5203,,-0.37241795
646,Er5In3,hP16,P63/mcm,,29991.0,-0.4944,,-0.37016066
647,TmIn3,cP4,Pm-3m,mp-21177,11173.0,-0.4923,-0.36591188,-0.3670282
648,Lu5In3,hP16,P63/mcm,,30575.0,-0.5421,,-0.35227743
649,Cu51Zr14,hP68,P6/m,,,-0.2519,,
650,Cu3Pd,cP4,Pm-3m,mp-580357,17159.0,-0.0788,-0.10879453,-0.10493702
651,Cu51Hf14,hP68,P6/m,,,-0.2373,,
652,Cu3Pt,cP4,Pm-3m,mp-12086,29766.0,-0.1119,-0.13770523,-0.14090041
653,TiAg,tP4,P4/nmm,mp-1017985,27645.0,-0.0166,-0.06492099,-0.10027248
654,Ti2Ag,tI6,I4/mmm,mp-979115,27647.0,-0.0238,-0.05569064,-0.10437079
655,YAg2,tI6,I4/mmm,mp-999544,27649.0,-0.2757,-0.32922003,-0.33455439
656,ScAu2,tI6,I4/mmm,mp-1018148,28211.0,-0.8644,-0.81646376,-0.81625514
657,ScAu4,tI10,I4/m,,28212.0,-0.5939,,-0.54758362
658,AuMn,oP2,Pmmm,,,-0.2622,,
659,YAu2,tI6,I4/mmm,mp-1018113,28232.0,-0.8768,-0.85966874,-0.85953584
660,YAu3,oP8,Pmmn,,28231.0,-0.7162,,-0.713549
661,PdAu3,cP4,Fm-3m,,313826.0,-0.0819,,-0.04314195
662,ScMn2,hP12,P63/mmc,mp-2039,18873.0,-0.2705,-0.14292699,-0.13666327
663,Os11Sc4,cF120,Fm-3m,,,-0.2342,,
664,TiMn2,hP12,P63/mmc,mp-1949,17696.0,-0.0891,-0.27119299999999996,-0.28692448
665,HfV2,cF24,Fd-3m,mp-1043,643804.0,-0.1731,0.03197413,0.03389914
666,VIr,oS8,Cmmm,mp-569250,17531.0,-0.2912,-0.5207884,-0.52346627
667,HfFe2,,,,,-0.1275,,
668,Fe7Nb6,hR39,R-3m,,,-0.0643,,
669,NbCo3,hP24,P63/mmc,mp-977426,,-0.0767,-0.14701269,
670,Co3Ta,hP24,P63/mmc,,,-0.0881,,
671,YNi,oP8,Pnma,mp-1364,17852.0,-0.341,-0.43600150000000004,-0.44546416
672,ScOs2,hP12,P63/mmc,mp-567612,19315.0,-0.2042,-0.39309886,-0.38791876
673,VCo3,hP24,P63/mmc,mp-542614,31151.0,-0.0674,-0.17098186,-0.18077774
674,V3Ir,cP8,Pm-3n,mp-2006,17532.0,-0.3047,-0.49090709,-0.49317772
675,YFe3,hR36,R-3m,,30268.0,-0.0176,,-0.06392285
676,YFe2,cF24,Fd-3m,mp-1570,18348.0,-0.0021,-0.06311649,-0.06298
677,NbFe2,hP12,P63/mmc,mp-568901,30227.0,-0.0549,-0.12231512,-0.12212013
678,NbCo2,cF24,Fd-3m,mp-670,29408.0,-0.0684,-0.13615909,-0.15548255
679,TaCo2,cF24,Fd-3m,mp-1799,29506.0,-0.0653,-0.21619792,-0.22813203
680,TaFe2,hP12,P63/mmc,mp-568077,,-0.0653,-0.18944423,
681,NbNi3,oP8,Pmmn,mp-1451,30781.0,-0.1741,-0.28823706,-0.29802735
682,TbCu2,oI12,Imma,mp-1527,23033.0,-0.256,-0.26626757,-0.04598186
683,Cu2Dy,oI12,Imma,,,-0.2529,,
684,HoCu2,oI12,Imma,mp-30584,17147.0,-0.2591,-0.27565436,-0.27657653
685,Cu2Er,oI12,Imma,,,-0.2798,,
686,Cu2Tm,oI12,Imma,,,-0.2425,,
687,TbCu5,,,,,-0.1907,,
688,DyCu5,,,,,-0.1627,,
689,HoCu5,,,,,-0.1793,,
690,Cu5Er,,,,,-0.1907,,
691,TmCu5,,,,,-0.1959,,
692,Cu5Lu,,,,,-0.1948,,
693,TbAu,oS8,Cmcm,mp-999141,28223.0,-0.8965,-0.8814056999999998,-0.5498906
694,DyAu,,,,,-0.8644,,
695,ErAu,oP2,Pm-3m,mp-2442,10720.0,-0.9349,-0.87936308,-0.88506276
696,TmAu,,,,,-0.9618,,
697,TbAu2,tI6,I4/mmm,mp-570179,10811.0,-0.8416,-0.86087666,-0.63931355
698,DyAu2,tI6,I4/mmm,mp-11241,10716.0,-0.8063,-0.86878179,-0.86652412
699,HoAu2,tI6,I4/mmm,mp-990,10738.0,-0.8768,-0.8741941999999999,-0.87478831
700,ErAu2,tI6,I4/mmm,mp-2466,10721.0,-0.8903,-0.87975395,-0.88130488
701,TmAu2,tI6,I4/mmm,mp-560,10687.0,-0.9494,-0.8855728999999999,-0.88724459
702,LuAu2,tI6,I4/mmm,mp-1018152,28185.0,-0.9442,-0.89031574,-0.89017268
703,TbAu3,oP8,Pmmn,,28224.0,-0.6892,,-0.55416782
704,DyAu3,,,,,-0.6664,,
705,HoAu3,oP8,Pmmn,mp-30386,10739.0,-0.6954,-0.72317647,-0.72445413
706,ErAu3,,,,,-0.6851,,
707,TmAu3,oP8,Pmmn,mp-568247,28227.0,-0.7535,-0.72834168,-0.7269042
708,Au51La14,hP68,P6/m,,,-0.6001,,
709,SmCu,cP2,Pm-3m,mp-12586,,-0.1285,-0.17435732,
710,Cu2Sm,oI12,Imma,,,-0.1731,,
711,SmCu6,oP28,Pnma,mp-30699,29800.0,-0.142,-0.1468077,-0.14585006
712,AgSm,oP8,Pnma,,,-0.3835,,
713,Ag2Sm,,,,,-0.2498,,
714,Ag51Sm14,hP68,P6/m,,,-0.1741,,
715,SmAu,,,,,-0.7908,,
716,Au2Sm,tP106,P4/nmm,,,-0.7991,,
717,Au51Sm14,hP68,P6/m,,,-0.6198,,
718,TbAg,cP2,Pm-3m,mp-2268,10672.0,-0.3783,-0.32250589,0.00103123
719,DyAg,cP2,Pm-3m,mp-2167,10365.0,-0.3866,-0.32984297,-0.33555494
720,ErAg,cP2,Pm-3m,mp-2621,10623.0,-0.4654,-0.33953982,-0.34775013
721,TmAg,cP2,Pm-3m,mp-2796,10678.0,-0.4457,-0.34526791,-0.35077449
722,PrAg2,oI12,Imma,,27628.0,-0.256,,-0.28436382
723,NdAg2,oI12,Imma,,27623.0,-0.2259,,-0.28434503
724,GdAg2,,,,,-0.2477,,
725,TbAg2,,,,,-0.2353,,
726,DyAg2,,,,,-0.2311,,
727,HoAg2,,,,,-0.2591,,
728,ErAg2,tI6,I4/mmm,mp-30339,10626.0,-0.2487,-0.3325519,-0.34165700000000004